# vtk DataFile Version 3.0
MOAB 5.0.1
ASCII
DATASET UNSTRUCTURED_GRID
POINTS 195 double
0.466565 0.010198 0
0.476297 0.515408 0
0.215238 0.032582 0
0.253834 0.299613 0
0.457818 0.244268 0
0.710665 0.54619 0
0.700463 0.277491 0
1.03173 0.286869 0
0.708444 -0.010022 0
0.975987 0.780007 0
0.743141 0.791065 0
0.214554 0.463607 0
0.286929 0.75797 0
0.504986 0.714495 0
0 0 0
1 0 0
0 1 0
1 1 0
0.546309 1.004681 0
0.24889 0.512406 0
0.767914 0.489552 0
0.986744 0.548798 0
0.041329 0.529618 0
0.209871 0.976187 0
0.088655 0.272123 0
0.335676 0.265376 0
0.499417 0.527905 0
0.646504 0.290372 0
0.914092 0.233416 0
0.578054 0.774407 0
0.375002 0.747992 0
0.886767 0.535944 0
0.780549 0.757672 0
0.843292 0.723993 0
0.913651 0.952867 0
0.672868 1.021269 0
4.7e-05 0.247109 0
0.080962 0.518197 0
0.079243 0.707145 0
0.252165 0.709673 0
0.147244 0.964987 0
0.015961 0.751859 0
0.2172545674 0.04653386087 0
0.1457264922 0.1720082869 0
0.2218959252 0.03839199903 0
0.09604474371 0.2591599244 0
0.08337339346 0.2559113186 0
0.2257412444 0.0316465469 0
0.2492267549 0.2677372286 0
0.2273352211 0.2683351623 0
0.2532685821 0.06576916216 0
0.1410281636 0.2706925073 0
0.2387044531 0.03049200137 0
4.461090041e-05 0.2345479785 0
0.3842594284 0.1800775483 0
0.4655501848 0.03735448648 0
0.475319487 0.02020241683 0
0.4817402479 0.008929417309 0
0.3310037257 0.2786752869 0
0.3059033558 0.3501216537 0
0.2150280639 0.4616277831 0
0.2626873118 0.4731329613 0
0.2187855775 0.4672624237 0
0.254048126 0.4977237718 0
0.004215027242 0.2610730631 0
0.08652275397 0.3403266019 0
0.08276671894 0.4604699224 0
0.06359526747 0.4600135632 0
0.3698821764 0.268126774 0
0.4599376126 0.275368804 0
0.575788637 0.1350161413 0
0.6366646323 0.2687557152 0
0.4855912972 0.2774318083 0
0.517052417 0.005977478284 0
0.3420940913 0.2756662456 0
0.474416926 0.487821915 0
0.4929899968 0.5176004658 0
0.4876922942 0.5271796442 0
0.4779060831 0.5265742145 0
0.2727535357 0.5138823317 0
0.226740011 0.5131698428 0
0.001739151464 0.2586890595 0
0.03104473598 0.4592387271 0
0.05938639206 0.5244144203 0
0.03724815431 0.5016911642 0
0.582707734 0.3933975458 0
0.50483454 0.5191561335 0
0.653913607 0.2711174482 0
0.666428271 0.2385969316 0
0.7042724934 0.1402552054 0
0.7480912175 0.02638818182 0
0.7614021858 -0.008201605503 0
0.4953532695 0.5350936369 0
0.4824284715 0.5579572789 0
0.4303734193 0.6500413546 0
0.3798322157 0.7394474701 0
0.3713349078 0.7411416164 0
0.2505075349 0.6098369191 0
0.08070634647 0.5462977693 0
0.6744175868 0.5029073371 0
0.533920898 0.522976349 0
0.704568863 0.3856307053 0
0.7088349755 0.4979910434 0
0.7005155729 0.2788756581 0
0.7062510802 0.2776548576 0
0.8540931634 0.1237354958 0
0.7823124298 -0.007482832898 0
0.3601748036 0.7433666563 0
0.2769556418 0.7174064403 0
0.5048349099 0.5448884253 0
0.5651078641 0.7338249789 0
0.5590725739 0.7719377095 0
0.5000996503 0.764265932 0
0.2396978548 0.709490739 0
0.06147546541 0.719699242 0
0.02042728325 0.7127313093 0
0.022962317 0.7469119868 0
0.01730073663 0.7401219924 0
0.8310559623 0.3789133973 0
0.8859415361 0.2827418029 0
0.7139009953 0.5705899987 0
0.6387957571 0.683273569 0
0.7311088061 0.5447723914 0
0.5980444235 0.7444145209 0
0.7229488014 0.557015192 0
0.9291055689 0.1926234405 0
0.2641078452 0.7345457803 0
0.274328095 0.7558309952 0
0.3944958112 0.9218713055 0
0.2833725067 0.7746673497 0
0.4066391338 1.030186323 0
0.4060110495 1.030080652 0
0.4854494898 0.9134881893 0
0.5759267597 0.7898377174 0
0.2504435846 0.7205204321 0
0.2456135514 0.7509566988 0
0.08748187998 0.7241138332 0
0.2105527185 0.9718911773 0
0.2039271977 0.9639451187 0
0.08354182193 0.723445008 0
0.1206192828 0.8640330385 0
0.8963688533 0.4296373404 0
0.8869456213 0.5339663992 0
0.8824917512 0.5342752382 0
0.9095763504 0.2834108924 0
0.7703878773 0.5420487132 0
0.7731791683 0.6012810791 0
0.7391659064 0.761092065 0
0.7159811491 0.7630081465 0
0.6681665991 0.7669597329 0
0.9920422415 0.2504215872 0
1.028580295 0.2583927114 0
0.2387158282 0.9843256049 0
0.2154462735 0.9777600705 0
0.3933031991 1.027942628 0
0.4751403654 1.018493921 0
0.4598552601 1.021460564 0
0.4110627352 1.030930569 0
0.5895291077 0.8042841071 0
0.8310405569 0.6522718613 0
0.9311108376 0.4566190037 0
0.8879098857 0.5338995355 0
1.026092793 0.2867094135 0
1.027946123 0.2833940618 0
1.030784113 0.2783172912 0
0.7673779556 0.789913972 0
0.7609800472 0.80557569 0
0.7507037014 0.8307316037 0
0.7094705414 0.931668048 0
0.8549931463 0.6733802601 0
0.99472852 0.506026397 0
0.9908578342 0.5267609481 0
1.030145444 0.3163044593 0
0.7717922752 0.7897043333 0
0.7662758827 0.8098834441 0
0.7547602061 0.8520080968 0
0.7276928787 0.9510211029 0
0.7090223906 1.019318247 0
0.6750485168 1.022485901 0
0.8722686412 0.6886044194 0
0.8150548388 0.7876497675 0
0.7948736297 0.8331455072 0
0.7643033212 0.9020620321 0
0.7378164981 0.9617729048 0
0.712431258 1.019000411 0
0.9952512631 0.665503673 0
0.9865252702 0.7173694111 0
0.9089786914 0.7209554261 0
0.86217307 0.7854120937 0
0.9041797798 0.9220576359 0
0.784071704 1.005747814 0
0.7805683231 1.007177531 0
0.7631956764 1.014267241 0
0.9760221613 0.7803291271 0
0.9201054665 0.9350119546 0
CELLS 198 930
4 14 2 42 43
4 14 43 45 46
4 43 42 48 49
4 43 49 51 45
4 44 47 52 50
4 36 53 46 24
4 48 25 58 3
4 24 51 3 60
4 3 59 61 60
4 62 60 61 63
4 64 36 24 65
4 64 65 66 67
4 54 4 68 25
4 4 71 27 72
4 56 57 73 70
4 1 76 26 77
4 65 24 60 11
4 66 11 80 37
4 11 62 19 80
4 81 64 67 82
4 74 68 69 75
4 70 88 87 71
4 78 77 92 93
4 79 78 93 94
4 37 80 97 39
4 22 83 98 38
4 85 99 100 86
4 87 6 103 27
4 90 91 106 105
4 13 110 29 111
4 95 13 112 30
4 98 37 39 113
4 22 38 114 115
4 115 114 116 117
4 103 118 20 101
4 103 104 119 118
4 102 20 122 5
4 109 121 123 110
4 106 15 125 105
4 39 108 12 126
4 12 107 30 128
4 136 135 137 138
4 116 114 139 140
4 41 116 140 40
4 119 144 141 118
4 124 122 145 146
4 121 120 147 148
4 121 148 149 123
4 15 151 150 125
4 134 126 127 135
4 129 131 154 152
4 128 156 157 130
4 133 158 35 18
4 139 136 138 140
4 140 138 23 40
4 141 160 161 142
4 144 162 160 141
4 150 151 164 163
4 147 32 165 10
4 159 169 33 32
4 160 170 171 161
4 31 161 171 21
4 165 173 174 166
4 166 174 175 167
4 167 175 176 168
4 31 21 179 169
4 32 33 180 173
4 173 180 181 174
4 174 181 182 175
4 175 182 183 176
4 176 183 184 177
4 180 188 189 181
4 183 182 190 191
4 183 191 192 184
4 33 187 9 188
3 2 44 42
3 2 47 44
3 46 45 24
3 45 51 24
3 14 46 53
3 50 54 25
3 0 56 55
3 0 57 56
3 49 48 3
3 51 49 3
3 3 58 59
3 62 63 19
3 67 66 37
3 55 4 54
3 4 69 68
3 4 72 69
3 25 74 58
3 75 76 1
3 59 1 61
3 1 77 78
3 63 79 19
3 65 11 66
3 11 60 62
3 36 64 81
3 84 83 22
3 25 68 74
3 72 27 85
3 76 86 26
3 71 87 27
3 8 90 89
3 8 91 90
3 77 26 92
3 96 95 30
3 80 19 97
3 83 37 98
3 86 100 26
3 101 20 102
3 88 6 87
3 89 6 88
3 6 104 103
3 97 108 39
3 107 96 30
3 92 26 109
3 93 13 94
3 13 111 112
3 94 13 95
3 98 113 38
3 117 116 41
3 27 103 101
3 28 119 104
3 100 99 5
3 99 102 5
3 5 124 120
3 5 122 124
3 110 123 29
3 105 125 28
3 108 107 12
3 126 12 127
3 127 12 129
3 30 112 132
3 111 29 133
3 113 39 134
3 138 137 23
3 38 139 114
3 143 142 31
3 28 144 119
3 20 145 122
3 123 149 29
3 125 150 28
3 134 39 126
3 137 153 23
3 132 18 155
3 29 158 133
3 38 136 139
3 41 40 16
3 20 143 145
3 146 159 32
3 142 161 31
3 10 165 166
3 148 147 10
3 10 166 167
3 149 148 10
3 158 168 35
3 31 169 159
3 163 7 162
3 164 7 163
3 32 173 165
3 169 179 33
3 179 187 33
3 33 188 180
3 187 186 9
3 189 194 34
3 194 193 17
3 34 194 17
5 42 44 50 25 48
5 52 0 55 54 50
5 55 56 70 71 4
5 59 58 74 75 1
5 63 61 1 78 79
5 82 67 37 83 84
5 73 8 89 88 70
5 19 79 94 95 96
5 85 27 101 102 99
5 97 19 96 107 108
5 93 92 109 110 13
5 129 12 128 130 131
5 112 111 133 18 132
5 38 113 134 135 136
5 118 141 142 143 20
5 120 124 146 32 147
5 128 30 132 155 156
5 145 143 31 159 146
5 28 150 163 162 144
5 162 7 172 170 160
5 168 176 177 178 35
5 21 185 186 187 179
5 182 181 189 34 190
5 188 9 193 194 189
6 69 72 85 86 76 75
6 89 90 105 28 104 6
6 109 26 100 5 120 121
6 135 127 129 152 153 137
6 158 29 149 10 167 168
CELL_TYPES 198
7
7
7
7
7
7
7
7
7
7
7
7
7
7
7
7
7
7
7
7
7
7
7
7
7
7
7
7
7
7
7
7
7
7
7
7
7
7
7
7
7
7
7
7
7
7
7
7
7
7
7
7
7
7
7
7
7
7
7
7
7
7
7
7
7
7
7
7
7
7
7
7
7
7
7
7
7
7
7
7
7
7
7
7
7
7
7
7
7
7
7
7
7
7
7
7
7
7
7
7
7
7
7
7
7
7
7
7
7
7
7
7
7
7
7
7
7
7
7
7
7
7
7
7
7
7
7
7
7
7
7
7
7
7
7
7
7
7
7
7
7
7
7
7
7
7
7
7
7
7
7
7
7
7
7
7
7
7
7
7
7
7
7
7
7
7
7
7
7
7
7
7
7
7
7
7
7
7
7
7
7
7
7
7
7
7
7
7
7
7
7
7
7
7
7
7
7
7
CELL_DATA 198
SCALARS RedParent int 1
LOOKUP_TABLE default
0 
0 
1 
1 
1 
32 
3 
3 
3 
3 
33 
33 
6 
6 
6 
4 
34 
34 
34 
35 
5 
10 
15 
15 
38 
36 
7 
9 
9 
13 
13 
37 
47 
47 
8 
8 
12 
12 
11 
41 
41 
39 
45 
45 
19 
31 
31 
31 
16 
40 
40 
43 
30 
44 
44 
17 
17 
17 
29 
21 
18 
18 
28 
28 
28 
22 
23 
23 
23 
23 
23 
24 
24 
24 
25 
0 
0 
0 
1 
32 
2 
2 
2 
3 
3 
3 
3 
33 
6 
6 
6 
4 
4 
4 
4 
4 
34 
34 
35 
35 
5 
5 
5 
10 
10 
10 
15 
15 
38 
36 
7 
7 
9 
9 
9 
42 
42 
13 
13 
13 
13 
37 
47 
8 
8 
12 
12 
12 
12 
12 
11 
41 
41 
41 
14 
14 
39 
39 
45 
19 
19 
31 
31 
16 
40 
40 
43 
30 
44 
46 
20 
20 
17 
29 
29 
29 
29 
29 
21 
18 
18 
28 
22 
26 
24 
25 
25 
27 
27 
1 
2 
6 
4 
4 
35 
10 
15 
7 
42 
13 
41 
14 
39 
19 
31 
43 
20 
17 
18 
28 
26 
24 
25 
5 
9 
12 
40 
29 
SCALARS BlueParent int 1
LOOKUP_TABLE default
0 
16 
0 
16 
2 
17 
1 
17 
18 
22 
17 
19 
1 
5 
10 
15 
17 
20 
21 
19 
3 
6 
26 
22 
20 
31 
4 
5 
11 
25 
23 
20 
31 
29 
7 
8 
7 
26 
11 
20 
23 
29 
29 
30 
8 
12 
15 
26 
11 
31 
28 
28 
24 
29 
30 
7 
8 
11 
13 
13 
7 
12 
14 
27 
25 
12 
13 
14 
27 
25 
24 
14 
25 
24 
13 
1 
2 
17 
17 
16 
1 
6 
10 
0 
16 
3 
21 
20 
2 
3 
4 
1 
4 
18 
26 
21 
19 
22 
17 
31 
1 
5 
15 
5 
9 
11 
15 
23 
21 
20 
15 
7 
6 
10 
8 
20 
23 
15 
22 
24 
21 
31 
30 
5 
9 
4 
5 
13 
12 
25 
9 
21 
31 
29 
23 
25 
20 
30 
31 
12 
9 
7 
25 
9 
20 
30 
24 
25 
31 
30 
7 
13 
12 
14 
15 
27 
26 
24 
12 
9 
11 
13 
13 
13 
13 
12 
27 
14 
27 
1 
2 
6 
3 
22 
20 
10 
21 
5 
21 
26 
28 
24 
31 
7 
13 
23 
12 
9 
8 
24 
12 
27 
14 
4 
9 
15 
29 
25 
SCALARS Counting int 1
LOOKUP_TABLE default
1 
3 
6 
8 
9 
12 
18 
21 
22 
23 
25 
26 
28 
33 
34 
39 
43 
46 
47 
49 
53 
58 
63 
64 
67 
70 
71 
75 
80 
86 
90 
91 
93 
94 
97 
98 
103 
104 
109 
110 
113 
121 
123 
124 
127 
131 
133 
134 
137 
139 
141 
145 
146 
148 
149 
155 
156 
159 
160 
168 
169 
171 
175 
176 
177 
179 
181 
182 
183 
184 
185 
189 
191 
192 
194 
2 
4 
5 
10 
11 
13 
15 
16 
17 
19 
20 
24 
27 
29 
30 
32 
35 
37 
38 
41 
42 
44 
45 
48 
51 
52 
55 
56 
57 
60 
61 
62 
66 
68 
69 
73 
74 
76 
77 
78 
82 
83 
84 
87 
88 
89 
92 
95 
96 
99 
100 
101 
105 
106 
107 
108 
111 
112 
114 
116 
118 
119 
122 
125 
128 
129 
130 
135 
136 
138 
142 
144 
147 
150 
151 
152 
154 
157 
161 
162 
163 
164 
166 
167 
172 
173 
174 
180 
187 
188 
193 
196 
197 
198 
7 
14 
31 
36 
40 
50 
59 
65 
72 
81 
85 
115 
117 
120 
126 
132 
143 
153 
158 
170 
178 
186 
190 
195 
54 
79 
102 
140 
165 
